
Host: localhost

Timers On : Sat Jul 23 19:06:43 2022
Timers Off: Sat Jul 23 19:06:46 2022

Wall Time:        3.74 seconds

                                                       Time (seconds)
Module                                       User      System        Wall        Calls

--------------------------------------------------------------------------------------

**************************************************************************************

Host: localhost

Timers On : Sat Jul 23 19:14:12 2022
Timers Off: Sat Jul 23 19:14:13 2022

Wall Time:        0.79 seconds

                                                       Time (seconds)
Module                                       User      System        Wall        Calls

--------------------------------------------------------------------------------------

**************************************************************************************

Host: localhost

Timers On : Sat Jul 23 19:15:27 2022
Timers Off: Sat Jul 23 19:15:28 2022

Wall Time:        1.05 seconds

                                                       Time (seconds)
Module                                       User      System        Wall        Calls

--------------------------------------------------------------------------------------

**************************************************************************************

Host: localhost

Timers On : Sat Jul 23 19:16:30 2022
Timers Off: Sat Jul 23 19:16:32 2022

Wall Time:        2.08 seconds

                                                       Time (seconds)
Module                                       User      System        Wall        Calls

--------------------------------------------------------------------------------------

**************************************************************************************

Host: localhost

Timers On : Sat Jul 23 19:16:53 2022
Timers Off: Sat Jul 23 19:20:46 2022

Wall Time:      232.65 seconds

                                                       Time (seconds)
Module                                       User      System        Wall        Calls

--------------------------------------------------------------------------------------

**************************************************************************************

Host: localhost

Timers On : Sat Jul 23 19:16:53 2022
Timers Off: Sat Jul 23 19:20:46 2022

Wall Time:      232.70 seconds

                                                       Time (seconds)
Module                                       User      System        Wall        Calls

--------------------------------------------------------------------------------------

**************************************************************************************


Host: localhost
Host: localhost


Timers On : Sat Jul 23 19:16:53 2022
Timers Off: Sat Jul 23 19:20:46 2022
Timers On : Sat Jul 23 19:16:53 2022

Wall Time:      232.65 seconds

                                                       Time (seconds)
Module                                       User      System        Wall        Calls

--------------------------------------------------------------------------------------

**************************************************************************************
Timers Off: Sat Jul 23 19:20:46 2022

Host: localhost

Wall Time:      232.71 seconds


                                                       Time (seconds)
Module                                       User      System        Wall        Calls
Timers On : Sat Jul 23 19:16:53 2022

--------------------------------------------------------------------------------------
Timers Off: Sat Jul 23 19:20:46 2022

**************************************************************************************

Wall Time:      232.68 seconds


                                                       Time (seconds)
Host: localhost
Module                                       User      System        Wall        Calls


--------------------------------------------------------------------------------------

**************************************************************************************
Timers On : Sat Jul 23 19:16:53 2022
Timers Off: Sat Jul 23 19:20:46 2022

Wall Time:      232.74 seconds

                                                       Time (seconds)
Module                                       User      System        Wall        Calls

--------------------------------------------------------------------------------------

**************************************************************************************

Host: localhost

Timers On : Sat Jul 23 19:16:53 2022
Timers Off: Sat Jul 23 19:20:46 2022


Wall Time:      232.66 seconds

Host: localhost
                                                       Time (seconds)

Module                                       User      System        Wall        Calls

--------------------------------------------------------------------------------------

**************************************************************************************
Timers On : Sat Jul 23 19:16:53 2022
Timers Off: Sat Jul 23 19:20:46 2022

Wall Time:      232.73 seconds

                                                       Time (seconds)

Module                                       User      System        Wall        Calls
Host: localhost

--------------------------------------------------------------------------------------


**************************************************************************************
Timers On : Sat Jul 23 19:16:53 2022
Timers Off: Sat Jul 23 19:20:46 2022

Wall Time:      232.65 seconds

                                                       Time (seconds)
Module                                       User      System        Wall        Calls

--------------------------------------------------------------------------------------

**************************************************************************************

Host: localhost

Timers On : Sat Jul 23 19:16:53 2022
Timers Off: Sat Jul 23 19:20:46 2022

Wall Time:      232.62 seconds

                                                       Time (seconds)
Module                                       User      System        Wall        Calls

--------------------------------------------------------------------------------------

**************************************************************************************

Host: localhost

Timers On : Sat Jul 23 19:16:53 2022
Timers Off: Sat Jul 23 19:20:46 2022

Wall Time:      232.78 seconds

                                                       Time (seconds)
Module                                       User      System        Wall        Calls

--------------------------------------------------------------------------------------

**************************************************************************************

Host: localhost

Timers On : Sat Jul 23 19:16:53 2022
Timers Off: Sat Jul 23 19:20:46 2022

Wall Time:      232.71 seconds

                                                       Time (seconds)
Module                                       User      System        Wall        Calls

--------------------------------------------------------------------------------------

**************************************************************************************
